unknown system                          
           1
    10.320000    0.000000    0.000000
     0.000000   10.320000    0.000000
     0.000000    0.000000   10.320000
   Si   O 
  24  48
Direct configuration=     1
   0.70164046  0.61241080  0.39655538
   0.10442229  0.56368316  0.22536436
   0.11038125  0.94629001  0.71219506
   0.91200101  0.74612211  0.29990751
   0.85966054  0.98221488  0.54636106
   0.45600487  0.49459460  0.37347555
   0.48178835  0.75313997  0.53022148
   0.03344376  0.38363693  0.48170555
   0.63401276  0.97391511  0.46718534
   0.32936134  0.42494757  0.15804734
   0.93889665  0.34445117  0.05357688
   0.49311884  0.74668663  0.93346720
   0.34937301  0.01342123  0.57680396
   0.16954920  0.17849487  0.90296298
   0.67582522  0.72825703  0.12428678
   0.80220960  0.22086820  0.32638999
   0.73021205  0.54203408  0.89600618
   0.91837820  0.46717263  0.68879075
   0.58794914  0.27743640  0.81939080
   0.28148150  0.28198395  0.38926371
   0.29500311  0.40201313  0.84743530
   0.28620587  0.71157520  0.75433485
   0.73800129  0.24506189  0.58905977
   0.41428946  0.05595207  0.87287257
   0.60800904  0.66270174  0.25780111
   0.05040738  0.50053202  0.58899564
   0.84518353  0.63936555  0.38698499
   0.85410389  0.60429239  0.75252213
   0.56110449  0.79955941  0.08850878
   0.71053986  0.97796781  0.57993407
   0.32696549  0.15892356  0.93598455
   0.66911946  0.40453886  0.82512852
   0.26101775  0.54044418  0.80070135
   0.11390871  0.05163150  0.83477020
   0.62534997  0.21362906  0.66402871
   0.86053977  0.40098821  0.92820570
   0.62980272  0.69622410  0.52874898
   0.86263055  0.26083442  0.17438071
   0.23796531  0.31417212  0.23236081
   0.44300396  0.34672074  0.79628891
   0.89957194  0.33143441  0.41601222
   0.39535803  0.63461234  0.44541453
   0.85668906  0.34966384  0.67274240
   0.55590664  0.13045209  0.87512720
   0.22009260  0.96497520  0.60673189
   0.97300803  0.47606855  0.12486040
   0.43078969  0.91461892  0.91036204
   0.16563270  0.26569262  0.49327470
   0.60779709  0.86268756  0.37002065
   0.30088624  0.12225606  0.46908793
   0.45342262  0.46576636  0.22021351
   0.08328983  0.23495161  0.01448580
   0.15658038  0.80377191  0.75742269
   0.75232984  0.61441861  0.04025575
   0.80759876  0.77906738  0.18314050
   0.17480202  0.31459664  0.79601162
   0.10333363  0.48983822  0.35426648
   0.67732057  0.23963930  0.44448938
   0.40433358  0.06419318  0.70852000
   0.30077167  0.39020980  0.01894503
   0.45804583  0.91276598  0.53221255
   0.35946170  0.71594272  0.90506820
   0.85876215  0.14529977  0.56343737
   0.76306619  0.06943421  0.32372587
   0.62666574  0.48675082  0.44605122
   0.57136761  0.63665967  0.87163140
   0.25431550  0.55549382  0.18074411
   0.40580697  0.36232970  0.41548758
   0.96655341  0.96083991  0.65060696
   0.38232393  0.73817228  0.66402932
   0.02591534  0.69190063  0.20178643
   0.90508501  0.85050007  0.43709100
Direct configuration=     2
   0.70127783  0.61160833  0.39490526
   0.10440620  0.56308943  0.22327889
   0.11063093  0.94701072  0.71084288
   0.91125667  0.74688782  0.30115652
   0.85875228  0.98330679  0.54663026
   0.45585539  0.49500908  0.37212368
   0.48236873  0.75228540  0.52999851
   0.03295763  0.38366667  0.48159994
   0.63378907  0.97424101  0.46642493
   0.33098340  0.42092469  0.16053622
   0.93860160  0.34381010  0.05382448
   0.49285957  0.74732911  0.93422804
   0.35011437  0.01454161  0.57549669
   0.16986386  0.17667634  0.90442944
   0.67540646  0.72866756  0.12374572
   0.80265977  0.22030249  0.32601831
   0.72838021  0.54223281  0.89461313
   0.91811549  0.46859452  0.69035518
   0.58706597  0.27823896  0.81915070
   0.28002071  0.28129987  0.38860649
   0.29510168  0.40347765  0.84860468
   0.28728217  0.71096779  0.75443576
   0.73790930  0.24556958  0.58965534
   0.41520886  0.05660927  0.87337074
   0.60871572  0.66235135  0.25755715
   0.05071979  0.50032787  0.58921348
   0.84366425  0.63768301  0.38676539
   0.85334101  0.60309648  0.75116570
   0.56377278  0.79890033  0.08779562
   0.70897339  0.97754542  0.58005707
   0.32504542  0.15810750  0.93481870
   0.67040458  0.40396315  0.82445159
   0.26158067  0.54033335  0.80096950
   0.11298145  0.05176794  0.83675078
   0.62625843  0.21376301  0.66537950
   0.86113828  0.40145562  0.92928365
   0.63099164  0.69599091  0.52674734
   0.86273471  0.26096736  0.17351478
   0.23827791  0.31690161  0.23284315
   0.44332054  0.34685824  0.79731923
   0.89822938  0.33241311  0.41278468
   0.39332270  0.63401314  0.44607167
   0.85603705  0.35116895  0.67255781
   0.55776403  0.13313598  0.87722099
   0.21916051  0.96409194  0.60665719
   0.97093338  0.47758316  0.12545292
   0.43121891  0.91572022  0.90890961
   0.16640176  0.26518443  0.49106785
   0.60671919  0.86221091  0.36953097
   0.30106486  0.12234196  0.47108689
   0.45416677  0.46516801  0.22010751
   0.08301047  0.23672442  0.01393329
   0.15638948  0.80348569  0.75766052
   0.75457682  0.61628496  0.03919670
   0.80690377  0.78049044  0.18492757
   0.17598509  0.31473270  0.79320880
   0.10420868  0.48788722  0.35522560
   0.67771266  0.23984231  0.44423307
   0.40415329  0.06305640  0.70946655
   0.30202269  0.39002177  0.01910093
   0.45791737  0.91416735  0.53066463
   0.35851907  0.71568768  0.90458598
   0.85862682  0.14409185  0.56258413
   0.76246853  0.06863870  0.32321977
   0.62417557  0.48491053  0.44592897
   0.57165740  0.63623631  0.87425653
   0.25674998  0.55544011  0.18085671
   0.40682853  0.36155601  0.41528548
   0.96667766  0.96042622  0.65077799
   0.38268910  0.73859829  0.66312873
   0.02676094  0.69179914  0.20318809
   0.90535967  0.85075888  0.43682302